// -*- C++ -*-
// File generated by PyFoam - sorry for the ugliness

FoamFile
{
 version 2.0;
 format ascii;
 arch "LSB;label=32;scalar=64";
 class volScalarField;
 location "0";
 object p;
}

dimensions [ 0 2 -2 0 0 0 0 ];

internalField nonuniform List<scalar>
11279(
    1.151039069841244
    0.76761790031578
    0.3817412928056344
    -0.700014572434768
    0.046495360271739346
    1.6990441962071008
    0.8348938960689305
    -0.6047188216167219
    0.5596513594482094
    1.3840972838906471
    1.185038773734313
    1.8812077271064387
    -0.34965410475040787
    -0.7750019088794944
    -0.7265015431166588
    1.9881544918758929
    0.770772296580657
    -0.8866531676640832
    -0.41455469548883744
    -0.4806958937533509
    0.4879622470342172
    -0.7377112867555669
    -1.7561366465734953
    1.3862004720450891
    0.6401309205490215
    -0.8231938320422895
    -0.42131970075951675
    0.8533277800393935
    0.0556760213790969
    0.5209838008156095
    0.21947406713624318
    0.8991192654844968
    -0.93061577706329
    0.966633402744543
    0.700541228838487
    -0.9390503643735169
    0.3846498006588416
    0.2664469900207003
    1.689874287031636
    0.0007196236499531836
    0.21625531090981853
    -1.4252879026782599
    -0.573347055292572
    -0.4393897283271073
    0.9641194356536866
    -0.5333464500886669
    -0.19579462102283188
    0.7154235567213892
    -0.5168508361788452
    0.8009861625471285
    0.8204794150686425
    -0.28091468835948885
    1.8884410755027428
    1.4553620809616625
    0.9498757173871001
    -0.07234879621153907
    -0.23051205772332461
    0.034136993262542464
    -0.2642170759753645
    0.8677114939730345
    0.9875910132517342
    -1.1885496607397061
    1.0488366088039838
    1.0066381984449808
    -1.327775820299393
    1.1411636133811673
    -0.22367176136034012
    -0.21236508492006068
    0.8830252224463403
    0.5531510446854842
    -0.4356975149151449
    -0.7567731386866774
    -0.7402756500810385
    0.4487057030863449
    0.8635840754409219
    0.9429281498266935
    0.1651875457792045
    -0.12212701529529724
    -0.8309067717391214
    -0.5086665758983259
    0.43816106292669843
    -0.8631022463224786
    0.6115569723176962
    0.9144376806973457
    -1.2274283156351333
    -0.5527862186412786
    0.2058664841631842
    0.24211831803646558
    0.23057982718767334
    -1.731414702003492
    -0.7126560874350013
    0.49135081486190657
    -0.004838711602744643
    0.035913570808950725
    -0.5580183292527287
    -1.6233422375339255
    1.7715392348390933
    0.48863931548384154
    0.3802312528939412
    -0.7987894829989637
    -0.3165024250240575
    -0.5403713212824766
    -0.3494467854482712
    -0.270629555725243
    -0.8145814794581029
    -1.62022891916269
    -1.5311476747024155
    1.3162192902277285
    -0.8086598667527115
    -0.292671760469849
    1.4831879704238156
    -0.3720922287101714
    1.7287919797105504
    -1.6560352784424108
    0.037353426795987715
    -1.2482900409650863
    -0.31975827541551205
    0.8812805422978806
    0.07756679619061628
    -0.8167496203087994
    0.11891425230915335
    -0.5085751569081816
    -0.8990440248059354
    -0.05414412137378417
    1.4968573701129937
    -0.7104004424001318
    -0.4777069118252851
    0.7190011931360538
    0.24595156095508763
    0.5503634271434298
    0.5328266953977184
    0.1480277812456238
    -0.7310263971620165
    -0.019961538146842307
    -0.1998619941506821
    0.422735266240203
    -0.6392170291828275
    0.0019618715348771114
    -0.4798281852805517
    -0.41056699693321796
    -0.011294378279058943
    -0.6138690464861061
    -1.83653066089312
    -0.10301763431140969
    -0.07734907862994823
    -0.6666237035773885
    1.402522786868045
    -0.49134256698975376
    -0.1348895033138519
    -1.1726033878424345
    -2.159484950425929
    0.21683067711136012
    0.40274827949236375
    1.2178181609266139
    -0.9142729508625694
    1.0815370382195133
    0.3149957119079971
    1.4964227715120784
    -1.0032231871680894
    -0.34782225124644855
    1.439997404872619
    0.29839767895463304
    0.7433213462819428
    -1.1466015774104106
    -1.0118664170951475
    -1.0287293059708023
    -1.645595979646257
    -0.512900521263345
    0.8278972555886033
    -2.8656936718326973
    0.9926150326274757
    2.196845409693416
    -0.3402560892044804
    0.03124881069597095
    -0.6207812153784351
    -1.1285758257469731
    -1.0979408700170927
    0.5975709695878615
    1.3046665323923863
    0.2117006340379866
    0.767532270827424
    -0.1031611726021776
    -0.9971261249894537
    -0.524641851442652
    -1.4292180370446692
    0.9788269757206918
    0.8526578519753081
    -0.03566554796332607
    -0.6735889153337217
    -0.633313942883159
    -0.08930404142524684
    0.5366204456434268
    0.2508852365338742
    0.27992288250486547
    0.8935236844369603
    1.2343377599152732
    0.19941322977928172
    1.4249820838629204
    0.49258028448931185
    1.5830777184800062
    0.7795200132304674
    1.4517857127235803
    1.5270988602737126
    -0.2980365885175339
    -1.372674674844951
    0.766772467640338
    -0.39271790778149485
    0.06839640111053708
    -1.039519724265894
    0.9672470899341125
    -0.5769775691569039
    0.7748405519183036
    0.5447768887463057
    -1.0107425920908524
    -0.34362464189741565
    1.3766738192832348
    -0.7069372175684282
    0.09970222052934541
    -0.7397118077449614
    1.1432840046266377
    0.5177323614731365
    0.8828863295415312
    0.027341000372767224
    2.114831437635287
    -1.250295303832136
    0.5331699301466016
    1.4711729346551983
    0.5665327888429477
    0.8371885237491752
    1.6712011036539194
    1.0541408952043958
    -0.03553624909005199
    2.1556541520931436
    -1.4963045782440585
    -0.49073913548906656
    -0.72623831376868
    -0.17814480100885394
    0.4153971829996414
    1.4689156906150729
    -0.6279370947269992
    1.3430104578750153
    0.6556393416967542
    0.5449174082254268
    -0.4795164343937749
    -0.6473018754469232
    -1.5931321760972008
    -2.432222093932252
    1.5987553584942968
    1.4527812864787344
    0.6218658143402183
    0.7104850014196669
    -0.44838595244892043
    1.112585198962748
    1.498574812033992
    0.04888435683113488
    1.5153028330870333
    1.5891428005535253
    0.637896889654162
    1.6579581421250407
    0.3817599294875818
    -0.10794040632849473
    -0.37021257046287365
    0.5906390612513397
    1.0967621046082883
    1.560816036479508
    1.5294974784336992
    0.3051700175942443
    0.11874120845144
    0.15281361603781932
    -2.4928104983243506
    -0.023777453913683386
    -1.3850538427070018
    2.757375047985268
    0.4033600092789476
    0.262227270288647
    -0.652385499122029
    0.058197080609644056
    1.214254915559252
    0.42162792753147665
    -0.7545393283442668
    -0.5428217692679974
    0.7101486037967052
    1.4123949350413856
    -0.4900733979215138
    -1.3136975163696176
    -0.9421577278286272
    -1.2802874594491682
    -0.5289722885041442
    -0.512272663578922
    -0.4609380885691635
    1.6235076290260488
    -0.5891136882200669
    0.5990379190648153
    1.1990671225343716
    0.3373801589154654
    -0.26173977572916796
    -0.17388789062007423
    1.880590511077684
    0.8962470660782197
    1.0520659377634363
    -0.16802348370616346
    -1.571591259500301
    -1.7275422421025177
    0.9268272696626155
    -0.6180135026949103
    1.0094720217251176
    0.3874233028441547
    -1.920716854022253
    -2.0285273021823107
    0.030863112708375502
    0.5197643663246374
    -0.8130475371747405
    0.37188157827661084
    0.34620971430841313
    1.8356864735495724
    0.7039312302570955
    -0.5028087028507191
    0.3076275232581358
    0.12361934530510917
    -0.4411693109006343
    -1.2963368406163858
    -0.35132081960811734
    0.9676361444542924
    0.11028191129773574
    -0.6596034088468974
    1.6631437713078467
    0.37153972198053437
    0.2533085703526861
    0.6139751645075389
    -0.7022059264307302
    2.3230027338827735
    -0.4804653613059484
    -0.34709547578861244
    1.2598739841272857
    0.2029931475333415
    -0.024683772849599935
    -0.8609942060141568
    0.0896054103944931
    1.3307491752969984
    0.33901242623753397
    1.0258706476954558
    -1.5651967823440789
    1.586641515228491
    -1.084517055479967
    0.013286454077116356
    -0.3817189020076842
    0.09040037102041555
    -0.6738869919686554
    -0.40380166083386504
    0.45843303100780725
    -1.4700228867541503
    1.5164199312416315
    -0.35884474585608633
    -0.5064121439019262
    0.39152342801069356
    -1.6623824470983048
    0.4319074636473271
    1.470168979906979
    -0.16429683654308813
    -1.151641862529272
    0.013043853275390654
    0.4135150159682353
    -0.8236928319583365
    -1.6841167881930492
    0.12393919869440746
    0.07204024805964233
    -0.5817943243686211
    0.3996046627284356
    0.3929406429103795
    -1.2790630625280919
    0.7748218049601316
    -1.2476473511284627
    -0.9430382834815854
    -0.13048837919242898
    1.611608934674322
    -0.9719527095561804
    0.4794831081292759
    -0.20099761871100313
    0.1084557456346703
    -0.48049568726769715
    0.4855692253926259
    0.05343936453164043
    1.05589175082143
    -0.7213221445405393
    0.7140970991545004
    -0.07581515013111392
    0.07237092165732394
    1.5298131992645596
    0.931305366588768
    0.6985157854223464
    0.5403338320905011
    0.7280163296303757
    -0.5183965780182334
    0.7531253437485171
    -0.6087960093285562
    -0.7128151608889014
    0.1881302075891663
    1.6810604597852132
    -0.6491320748075144
    1.4932076681855917
    0.7578860786381676
    1.9378862879574439
    0.11687427009279987
    1.0336892871535102
    0.45611951852410987
    -1.6902898306903935
    1.1212555568410432
    1.320370528424342
    -0.5714040984923879
    -1.6886921487492466
    0.8032457223879692
    -0.7591686691123769
    0.8007350084457369
    2.28259708410613
    0.07126757356947316
    1.9807759096918687
    -0.6397270015832164
    -1.3494414593062483
    -0.49546783513548787
    -0.750127617705288
    -0.035490663655732446
    0.06976216870534273
    -0.8622406581801414
    -0.0721309593144868
    1.0447598621970478
    0.7068496905395675
    1.0518555307270125
    0.2728995827472555
    -0.6032183481675075
    -0.859357596565747
    0.2561119022567375
    0.17318254104322361
    0.7910507158209015
    1.5141815444359026
    0.8183111088036092
    1.5937973394389429
    -1.6446061402547787
    -1.4709160138967061
    0.32188106989323456
    2.0497828010654113
    -0.1420023749348451
    0.7279812066528595
    1.6334193663639995
    0.2535600690672794
    1.2113437335075996
    1.3799719606068008
    -0.17066958928307585
    0.006081191656750073
    -1.2984359485505197
    2.335168848079012
    0.5337730859567275
    1.6710533335130349
    0.14002602467058753
    -0.1688866708537565
    -1.596236672370473
    0.5122071917949693
    -1.1284431634488505
    1.2997961829355424
    0.025712827055534734
    0.3518186663481752
    0.7844646888626519
    2.0373434223847613
    -0.6731882266718527
    0.5839251138726228
    -0.3545193263628107
    -1.7611784755595004
    -0.6787079376769051
    -0.3950101093847997
    -1.5800386388525747
    -1.2714294114367048
    -0.30234896784725757
    -0.6744968746284783
    1.5121370232329163
    1.2174546904905275
    -1.5070233169931988
    0.8445300531217538
    0.1620273600125391
    -0.6322077620747903
    1.6354244086786
    1.0792911526305156
    -0.8718292861801875
    -0.4850338847362242
    0.045682424621216744
    0.8987375994713611
    0.22113468923254678
    0.4700233103285495
    0.5104994266126746
    -0.7593778631103308
    1.2212215057683917
    2.492358563511495
    -0.9397923028122273
    0.14748073708006312
    2.208876545790816
    0.8998465371853434
    -1.02758077909221
    1.5889738573775287
    -0.805031448136646
    -0.06273146882405613
    -1.0814502736754876
    0.7992768810667462
    0.10542272558556051
    1.7738680481489455
    0.6197375383446934
    -0.03311811203832156
    0.051877067474043
    -0.7400895589521258
    0.494113565115327
    1.0697641690399877
    1.5278984731778578
    1.0533255128001413
    0.24898123481000903
    0.52446723376546
    -0.3182868597514643
    0.4729782996104006
    1.4307344225636416
    -1.9053375111953454
    -1.2146443237527933
    0.6221752494262798
    0.44293445201311493
    -0.30494575238274413
    0.10668148905817543
    0.5232667943541651
    0.5004593277493583
    -1.231218840301274
    0.8426469211733829
    1.2697974107450378
    0.13968051375150717
    1.7088324241735657
    0.8259869405508832
    0.43670519621031095
    -0.23897460005647253
    -0.24536502456144288
    -0.03350151490199375
    -0.3563588440643756
    0.11975352760821412
    1.2127084017862917
    0.24783782199132978
    0.1079199324133527
    -0.7682058057134946
    -0.08298174005798656
    0.27084163541393147
    0.898783033275872
    2.1435749355618436
    -1.5853734717671844
    -1.4378177078630334
    0.6547723500194145
    -0.5521311227293941
    0.1627684541489054
    0.9844270229553221
    -0.4524083880152703
    0.7085730322385786
    -0.9525767357994656
    0.7759252288628867
    -0.8287282649233181
    -0.37056964487793675
    -0.12911480610860504
    0.030348743043533057
    -1.3878038009183755
    -0.8998705451088687
    -0.2397136713133449
    -0.12037130752438333
    -0.6198111154311498
    1.626362901031859
    -0.8140025292792638
    0.9113078208924289
    -0.47281345949939985
    1.6986124647880236
    -0.5441130487192578
    -0.04010173992415295
    -1.4270237607287566
    0.6381621039741826
    -0.1680959627547429
    -0.5279201430458005
    -1.9159983549266018
    -0.434925305652798
    1.0578488229783554
    1.331630613159753
    -0.025537048921512363
    0.44678080401792925
    -0.21544904224651226
    -0.6265713788241738
    -0.34909913965040634
    0.3974443514896815
    -0.1881717770014498
    0.6658179474980936
    -2.4570518886498562
    -0.6390710785996477
    -0.6066826757614565
    -1.619162878900054
    0.29704093677957966
    0.017380576081681746
    0.9233138140106338
    -1.4187391490839052
    -0.0002388283711150222
    2.113682359375572
    -0.29715892761546986
    -0.3105478397275285
    -0.3696899162966626
    0.8993698130666535
    0.8455911309542853
    0.18820891035216825
    0.1641336152244761
    -0.35299668739246376
    0.8918564181981281
    -0.25132997582307876
    0.16951990922849422
    -0.7695180376474178
    1.4373976428790698
    0.3243443374898583
    0.008462772140045236
    -0.7628539351221933
    -1.1673494976766376
    0.37658811240189943
    -0.3277087225309487
    1.605256913864548
    0.13581027402108467
    0.29223802123404236
    -0.8809754859673761
    -0.34646866572832263
    0.19221488719200538
    0.27928008239201724
    0.5210355479339752
    -0.4800592139709647
    1.5121149679880082
    -1.0484420633172649
    -0.2824312897065422
    0.939132331901775
    -1.3713047133074807
    0.4866263884191862
    0.08892589174500477
    -0.34063623891952866
    0.925519448777674
    0.1422093422866864
    -0.028036790379402984
    1.7665082129230933
    0.9947333837627921
    2.0416999949114696
    -1.7177922799859684
    -0.8183988012468069
    1.0238320262704825
    0.6073443654021258
    0.20645781284822803
    0.1515793666253066
    0.20082743275958492
    0.6093128511482911
    -0.07397902342345364
    -0.7153740655412582
    -0.7678719444436974
    -1.031955216367294
    0.04508357647611202
    -0.7598457651310574
    -2.4783510797625623
    0.1661210581428664
    0.34984408784060395
    -1.1136590916820142
    0.864881640636981
    1.7865336033661288
    1.0029335238196453
    0.17556579290054697
    0.1894890932583342
    0.8433744685647908
    0.2092138017906313
    -2.3798100099325055
    1.0949076996164104
    0.938419837215017
    -0.3829817853311253
    0.24284418371544922
    0.03685543315048957
    -0.5935898001741776
    1.4797956532044918
    0.39155962618139906
    -0.6558646037300664
    -0.6726692116210514
    -0.04386790732919807
    -0.990730103966088
    -1.0752434866534337
    -0.93405463084937
    -0.7006016279161108
    0.7722453663880728
    -0.5859527305198298
    1.1407467692524031
    -0.04511746101399783
    1.0825578652300873
    0.11552690656603046
    -0.6710800209491942
    -0.4528614027456838
    0.4414624298298322
    1.8558701103748243
    0.4505027644414616
    -0.9322798452916105
    -0.02522903364184187
    1.439984392278123
    -1.4078569809699955
    2.016579512065976
    1.5478420386622842
    1.607867041823204
    0.4392705520218033
    -0.6149606708328353
    -0.7562634971149621
    0.3179770434229854
    1.0828942077149368
    0.6610373628880258
    -1.6931819349552002
    -0.6167342433521249
    0.05658833658472285
    0.5474817715508983
    0.764231648288806
    0.11632569455232418
    -0.9418453152845031
    -0.31426188783195
    0.8129065813150896
    -0.7958302205134116
    -0.5389977757677087
    -1.4836692387123993
    0.3417790085897572
    0.414263322858913
    0.900639312963567
    -0.8219223471733341
    -0.05564856476708189
    0.07939470731954827
    -0.32684947775838297
    0.6987362827333157
    0.3418131942193648
    0.08268758984565641
    0.1454973347514626
    0.6200924623733779
    -0.4875877166822521
    0.5174889267074627
    0.205985734115497
    -1.0312053380404167
    0.9269342927385323
    1.4554684975183445
    0.42629547901139014
    -0.8601862121169465
    0.5356024031075224
    0.19698196985683095
    -0.7548139712814858
    -0.6664266399641342
    0.4502532920524942
    1.3836034669571535
    0.8474845185915383
    0.15749797774971122
    1.9367302622955829
    -0.86491617993995
    -1.1473209092230903
    1.5853896595275039
    0.3805279235070121
    1.2403066811209924
    -0.7121632629875285
    1.8581917557300816
    0.5888546816620452
    -0.08278741956581762
    0.6311559246004326
    1.2649200036098232
    1.5514706778307987
    0.5566110439376198
    1.3127913537878781
    -0.33389847187631094
    -1.2320097413836806
    -1.633392371533675
    -0.12290628223601473
    0.08989186667226587
    -0.6403272902115041
    -1.1215167137854436
    1.8407542174483442
    0.04829503379492486
    -1.6706197502428284
    0.11076847412333382
    1.1996416616642291
    1.3767119748569259
    -0.8130410308774926
    -0.6256337552250157
    -0.380699067483131
    1.0760609414612667
    0.8689061163134849
    1.6183482455846834
    -1.1814414758582559
    1.3251496794434907
    -0.9948805702291297
    -0.33046356046525827
    1.4732631102151443
    0.2100702758730554
    -0.8957483095593094
    0.031060541611623686
    0.8460430980605657
    0.19432885484739618
    -0.05651157271581004
    -0.6391354247766673
    -0.8503105351044206
    0.6560867323397161
    -0.9757433444985455
    1.216429121602298
    -0.14111487187974084
    0.16024205685986406
    -0.6825977109451324
    1.264319659843423
    -1.752505029946918
    -0.2684850966937667
    1.3754260438025558
    0.11179394221220167
    -1.2851933178503143
    1.8607691316500488
    0.4730052621473008
    0.6607926048076576
    -0.6416036823724515
    1.7454276995636513
    1.1834611620660327
    0.4378394147487691
    -0.25110377171748943
    -0.028652958784024646
    0.4720536886057384
    -1.9596578149845458
    0.184855444825203
    -2.3233216755688333
    0.03917347385165714
    -0.29813740855582027
    -0.4180142812051311
    0.1362266141530414
    0.9954358984512292
    -0.9697653806424139
    -0.4577791158409681
    0.16351929050048344
    1.2638729308578083
    -1.0711623841356281
    1.1029161795950115
    0.8998009379664957
    0.03915331397935828
    0.77144216950663
    0.8734267247241977
    1.849810321560083
    -0.42606813985013087
    -0.5181621859029719
    1.2253171647478367
    0.9667520048240367
    -2.464945681354935
    0.033165321879057436
    -1.7051268350450095
    0.37810736037834175
    -0.06919606787455823
    0.8319413604330754
    -1.0927660479042915
    0.1580340580462601
    -0.9139226032972033
    0.5343957882276532
    0.02030854768852039
    -1.279775998319748
    -0.24207548478339114
    -0.1091107816840742
    0.15233933522672946
    0.7649108395557527
    0.00743231663661593
    1.389336066213682
    1.7461159334810104
    -0.8218534245329961
    1.1402911078926006
    -0.09000353730203714
    1.408407236485766
    -1.5731890517176725
    -0.23412062661897287
    0.6298737980758091
    -1.0487004405113638
    1.3684487567996355
    -0.26161634906485065
    0.2062233793793824
    0.8769744211438995
    0.8181223710453077
    -1.0979831058110918
    0.015206948988814377
    0.4000943718725651
    0.8070543874930468
    -0.48729973032186386
    0.7718572492158016
    -0.5189842951569236
    0.44429142852514547
    0.34829350763186395
    -0.9362272930252726
    0.29710969400558085
    1.5480140695725677
    1.1241602325954476
    0.17951191387338256
    0.4734045172182508
    -0.46912868973259386
    1.0335345696104794
    1.4108784164015007
    -0.6699318800373877
    0.7976150735010288
    0.4046370906662984
    -0.11014630300156836
    1.3449025773356862
    0.2727719242328215
    0.10284792909540783
    0.13516626345436547
    0.1745904824016521
    0.2669458107378825
    1.3461532199982031
    0.33633811751619525
    -0.3812482982194564
    0.10705384189953543
    1.910148950303597
    0.005168745498107478
    -0.9709718025388901
    -0.08640758124957072
    0.43382599426377544
    0.19819841999747637
    1.0903370809378683
    0.9250856221103305
    0.6344546724432335
    -0.31700258284046223
    -0.34217803838388955
    0.16613999463829926
    1.1657403241634505
    -0.30516492637901893
    0.27948588539606645
    1.0856453789647804
    1.8021694486913185
    -0.35011136511546626
    -0.137162792544648
    0.2682576015669075
    1.659728847462492
    0.43896980118842444
    0.09286828227993207
    -1.0029768300824653
    -0.4680027694800324
    0.1534153933951384
    0.6744150268251813
    0.03225660443525712
    0.8799306510332767
    0.5598825259839031
    0.21670555495009053
    -0.14403421437200917
    0.3987273602241013
    0.0021610441809258455
    0.7130190387833897
    0.8510944108018811
    1.7067410355751498
    -0.3126240653450702
    0.804653729222906
    0.8610658627154206
    -0.3734631827336625
    -0.31909592884186394
    -0.8896425355589349
    -1.4768435815182226
    -1.1837343391189081
    -0.8583144937578157
    2.101776055964352
    0.020326515820856504
    1.1580636653444925
    -0.9864656120868711
    -0.41488265698062177
    0.3202551434540771
    1.14939992403967
    -0.09091233745300585
    0.8904220553455261
    0.4553633544524337
    -0.5276693197730825
    0.1980431441810589
    -0.8113860052995844
    0.9073442728299839
    0.7012946360045497
    0.9208027141016155
    -0.6353355817695531
    1.645862053331386
    0.12316530621195358
    0.047153350934518105
    -0.8190199872196451
    0.30115834774431527
    0.5336674413336174
    -1.1638665334007412
    -0.6012998726891714
    -0.17338133678264614
    1.4755845350179526
    0.9876592190966127
    -2.253954401493491
    0.4728155594720345
    -0.2243810028984742
    1.027088483181172
    0.9907220860951208
    -0.5268051401394686
    0.9631864436559593
    0.3284385628783842
    2.7941854722894326
    0.3760993406056785
    -0.5173130589740078
    0.8896794552494685
    -2.084191211491316
    1.4791455748608238
    0.6150337611250182
    -0.2355273377082713
    -0.10839089849027193
    -1.1993581643356226
    -0.13487089420096066
    0.07262129693287978
    -1.831074854960189
    0.6263565930321929
    0.7704681547533735
    2.5339093216037702
    -0.6293739939327657
    1.7709735178071988
    0.9749618491886494
    0.3779816454823653
    0.0228367335200785
    1.875958137713399
    -1.3295325205563278
    -0.21259887051608717
    -0.7296416034723455
    1.3143579378337045
    -0.09235939585595816
    0.7259085650126152
    -0.694930342240427
    -0.9464063399315102
    0.8711504028972268
    0.22698282351107377
    1.4821153135877072
    -0.2142521592434588
    0.9469268208666548
    0.48716029076030043
    0.740621343200286
    0.6591661407719054
    -1.6437390383012145
    -0.3530819309140338
    2.537554391929741
    0.19171956774495236
    -1.3169889308434866
    1.3412521034747122
    -0.8204992324956353
    0.6168887726361311
    0.30931054521254925
    1.0121159493465954
    1.8155653633436353
    -0.9482243537692896
    0.4455524647218255
    -0.08367850659821946
    -0.4477421598500513
    -0.6771347921957185
    -0.7839524786443476
    -0.759146448453132
    0.6717425927996598
    -1.5596901390716345
    2.4484972979626414
    -2.0041480961181803
    -0.3610684107858391
    0.4857547375713597
    1.3316458312787396
    0.630927432263184
    0.7239320842401707
    1.4069272192762041
    2.462148612350995
    0.6666705481281308
    -0.39901252981639534
    -1.5400659335334783
    0.005898843027207844
    -1.8203674746621765
    0.9115214259393645
    0.5128864382000283
    1.685508892406964
    0.01390462123830782
    0.7538920943377493
    0.28822719224032545
    0.07712587393745002
    0.1316600800024723
    0.8596163368819442
    -0.7646989666349853
    -0.4567494667324307
    3.429110980495687
    -0.6685432818179701
    -0.907083382127408
    -0.004622928600374453
    0.16492993707254522
    -1.1064289412962218
    0.7204485685831518
    0.176280324251327
    1.6461836188021468
    1.121594435679057
    1.9785414928302232
    -1.1019410297860854
    0.8386060143394225
    0.09799086275442298
    0.2493226500011873
    -2.328943998600821
    -2.357702714646364
    -0.09877245455601551
    -0.6403100319823635
    0.25076861942642226
    0.8381797415934601
    0.566270221152316
    -0.017667365356023788
    0.5456791136773861
    -0.037612516061177916
    0.8782234648011608
    2.1206152050600022
    0.5262011068439149
    0.18544980610642173
    0.6101597174146521
    0.2571436466135411
    0.004430322114054283
    -0.5675823656547023
    -0.6281216971268805
    -1.4394859665878865
    0.13846261968154666
    0.41849222308665934
    0.9262830564945067
    -0.3647875867347018
    1.2548855288339584
    0.20113843238958204
    0.5496209097545405
    1.6354628950809649
    -0.24711339896342482
    1.0352875204757797
    0.2274849731917843
    -1.3337541149841983
    0.9571533416875572
    -1.8424996923750638
    1.1408885844771626
    1.6316762300826833
    0.04570673363646396
    -2.3679114258570033
    1.1999366505648756
    1.3433105194819908
    1.3710149948209243
    0.7939083036274269
    1.6904660292525218
    0.3486178024391823
    -0.4082675170990934
    -1.118967237750285
    0.42779650384172707
    -0.7826327479271558
    -0.3762186547562632
    0.15724641011247753
    -1.4000734644894575
    0.18529433730661132
    -0.23659403962825437
    -0.13331084402143822
    0.665797436120329
    -0.8024443127708067
    1.5926585168681102
    0.08143190204586657
    0.07532657604265433
    -0.42879940624144486
    0.8376336537295341
    0.3575063004741471
    -0.005241660927216689
    0.1399134739989156
    0.11425862703061737
    0.180247938749552
    -0.36491743698909856
    1.4689877009896979
    0.8396485657662311
    1.0726946494309346
    -2.165900600617263
    1.8377291200567414
    -0.6301373810971492
    0.4077625118531773
    -1.2930688047021195
    0.9414544183619304
    1.1454117843791523
    -0.07320040435555532
    -0.20134055020026886
    0.4846411406868906
    1.8244894668145988
    -1.2432147982830455
    -0.21053711865301641
    -0.3466278494584472
    0.42269407807033704
    1.1343021164140148
    1.0082548478967488
    -1.0431048043257152
    0.13725094587987668
    -0.18462157179763974
    0.2926660721841255
    -0.8730314073039067
    -2.6668532880485047
    -0.6796853158550101
    -1.1044114377682481
    1.5172551633663034
    0.08403054404651021
    -1.391349402089811
    0.8121366878534582
    0.2780045724408662
    1.3940311867497306
    1.3864483729978567
    -1.1935596198968188
    0.053361240718817315
    -0.860078251693121
    -0.2705490265122721
    0.6215267700878676
    1.2475496235488315
    -1.754894936285166
    -0.7391046819907521
    1.2831122723723172
    0.23920515101277157
    -0.16607250431064394
    0.7627068037939682
    0.06040500360834361
    -0.679597811670837
    1.1943121220083972
    -1.3108007805033801
    -0.5562577141898227
    -0.23240781629940532
    0.08755231521504882
    -0.3612961311895158
    0.39242347498633934
    0.8251429414663602
    0.5308716357818909
    0.0022540621763260014
    -1.5011526519035452
    -1.5883511503822347
    1.0373421319533114
    0.16399119003434964
    -0.5302142193449225
    -0.336250470762373
    0.8429050226769207
    1.4340364235550664
    0.5502218600401756
    0.3608306048319853
    0.45539387339757537
    0.5081059914352413
    -0.07377000862436464
    0.25221926180667215
    1.4921322544438698
    -2.5293851520604473
    1.8778760618106125
    -0.623149893543459
    -0.5209182644448076
    0.023036581608002545
    0.7294955197682536
    0.14458251765399238
    0.7762119470466928
    -1.0330626102141327
    -1.7398076049008424
    1.055618486337018
    3.7789523779911334
    -2.4414511111640707
    -0.33340275267794395
    -0.5191647621983845
    0.7351695623495508
    -0.06089885717105309
    -0.19120682682231754
    -0.015307936609333253
    1.8437672947314723
    0.8415487353912935
    -0.5062624439271122
    -0.4906160120843667
    -1.1026509881196789
    -1.022580965347755
    -0.08419209054496206
    0.11121054652306071
    0.8857519123743359
    0.7478289420981599
    -0.03086191562232927
    0.6242563823358136
    0.27624543232246346
    0.19069830652174413
    -1.6993838698233743
    1.7137078463367386
    0.5173762795440943
    2.8143075749813904
    1.7397826596294084
    -1.5859274995192774
    2.039767073247719
    0.7944960207661171