// -*- C++ -*-
// File generated by PyFoam - sorry for the ugliness

FoamFile
{
 version 2.0;
 format ascii;
 class volScalarField;
 object tau;
}

dimensions [ 0 0 1 0 0 0 0 ];

internalField nonuniform List<scalar>
11279(
    4.404102185549508
    3.40522367161737
    2.8437210978837997
    5.584542262802806
    3.2341482321639683
    2.244589748123417
    6.21101453417626
    4.282981970640738
    3.4597935835654297
    5.074151228470109
    1.8149089621553989
    4.424141122008198
    4.926851692815281
    4.343080939730454
    2.400085507779834
    3.0273510331697158
    4.941448747259953
    4.652148108847005
    2.8213263846497023
    5.68939944887212
    2.210521408701769
    3.8300162411495844
    4.526839347103159
    3.124067322150182
    1.9955324788150834
    3.5084428110488073
    2.8529980467876
    7.28767907531434
    4.688868219622214
    4.211486549540774
    3.372909891321017
    4.997817092222711
    5.096540127092357
    2.6207961919258373
    3.1932404996055697
    1.485368478645018
    4.2316512820433
    2.948367284023155
    4.23734863255289
    3.856706256611294
    3.5444310736327167
    3.2748909530861203
    4.325811762790751
    6.26250574130079
    3.158799672624897
    4.696468181608789
    3.8343335243719876
    5.398946107710289
    3.980737686889799
    3.5257577560317723
    4.987532189164985
    3.8484899237437293
    3.2720930675848203
    3.57153337590955
    4.068042148344745
    2.9335852192014844
    1.8375605755129856
    5.271864770354435
    4.9056948752036655
    3.481448651742339
    2.8540834409993265
    3.6625883914039403
    3.4032739265443404
    3.974366270894153
    1.8946974183417251
    3.856485785912037
    3.0554170192602643
    4.477585135686995
    4.016062703790951
    3.9950796582771835
    5.191393978277702
    4.3219866732462995
    3.74286313855619
    4.667252267925013
    4.6793044605839755
    4.158805114497146
    4.449396822497179
    3.5965854548586074
    3.5587483659573125
    4.78116972050659
    6.012767633805099
    4.6320999879446
    4.945491312097557
    3.8933068154428896
    3.1740253218504675
    5.040051701584909
    3.3065006807978126
    4.936905597202297
    4.783716388345979
    2.8553550789905655
    5.9775309098026135
    4.597215664660207
    4.209970103175684
    4.007057323690531
    4.774097302395
    5.374492669481093
    3.8568114702506895
    5.20861588947109
    3.347265867265743
    4.559870306910922
    5.480584931967143
    2.778561147906235
    2.559794041820694
    6.9750314488268295
    3.0354941327630516
    3.8745218749144894
    4.929291979687896
    4.00016274129757
    6.411188361673954
    5.2672155476806335
    4.148194290331535
    4.01411309086819
    3.8871244734450237
    2.7542335167333976
    6.876589189229323
    6.207073636945825
    5.638648811856663
    4.569795496935654
    4.571284213769238
    2.768325052347965
    4.274896609702557
    2.277968615540116
    4.0617482329757735
    2.70161092710343
    2.519959017048171
    4.506879854981355
    3.920079656085873
    3.075548879383306
    4.869038240607803
    2.477783170505714
    4.399811442506187
    4.240042714017667
    3.5618541175359564
    2.9220363428681377
    3.8487202836881376
    5.5944226979363405
    6.483005161216296
    3.854432214777439
    4.14737550928809
    3.043405352683882
    4.702129763445493
    3.8321429354331866
    3.4863941553198776
    4.616052540244437
    4.193327186362123
    4.874378521089785
    4.997651640085566
    4.116462408967803
    4.187432959482604
    5.216073481567555
    4.862113037896196
    4.645006179693771
    3.77324349433777
    3.9117728773715057
    3.545156358360642
    4.403117027317035
    5.556928230633211
    2.96239098249949
    4.0107647664577515
    5.8222245655321725
    3.4391822822654223
    4.626876572350755
    3.5771703777961665
    5.046733659700852
    3.72566283393183
    4.262209501074815
    5.669462554446363
    2.527385157380546
    3.0751562168831708
    1.0140333797948435
    4.010526923504345
    4.37454583074701
    4.240371933376023
    4.9470751771250265
    3.4719712308800337
    1.906260214503436
    3.298832881673005
    5.267913301102458
    3.2351849950765983
    4.7456235886736176
    5.68189454697925
    4.717212073678979
    3.1943595480858744
    4.096798053996038
    5.895005885839936
    2.840051989707194
    3.7011408978130538
    3.1482119692501493
    4.552855021765753
    5.5660620167452866
    2.8620093736501375
    4.027780748987765
    4.103258907332329
    4.064630237629735
    3.7229302747136463
    3.6282065034433684
    4.7327481438870995
    4.7023498817440315
    5.761534818663618
    4.956028622169618
    3.890688940633401
    3.8959716916981546
    4.360995076059401
    4.01581595721315
    3.568558981698575
    2.7056877629108698
    4.224025881129887
    4.396432646446155
    5.166676063309576
    4.096364758772528
    3.712419042294725
    3.4892534906963952
    3.8042953276626315
    4.361792933310209
    3.895374857031974
    3.0152619265355325
    3.001385531559361
    5.039736302942217
    4.30661120966545
    3.864819203918188
    5.678917289512441
    6.293448286352952
    4.666177930285817
    3.737372933593704
    4.447740605197276
    2.9769614306899452
    3.4859692481540367
    1.9883424469638302
    3.6091165600934585
    5.151935669872819
    4.914923985709985
    3.2061520214156025
    3.7686899044088404
    1.9859343166567411
    5.089525943199433
    6.396656060861231
    5.527958865301832
    4.535598222901273
    3.898022663877456
    2.9292273438213656
    3.412101388332213
    4.551630120919751
    5.691104539746613
    5.340214123031101
    4.179813048311629
    3.4825300814459874
    3.0303047678885924
    3.540980938452316
    3.137627261281506
    2.279151977151473
    2.8711050123844792
    3.9975754592754207
    3.3077226302878007
    4.0064080969488405
    5.751483645382168
    5.560336650378608
    2.2927939375499333
    4.447894582286038
    4.5962089439087945
    2.0481272287883208
    5.5733865775706715
    5.066509947499338
    3.3642961165185783
    3.446513142253643
    3.5972368235359125
    4.519346514934885
    3.641875026045955
    3.485935858185998
    3.428083201398632
    4.0415355216661055
    4.193569197555274
    3.05280291073345
    2.5202092215580167
    4.1336174356061495
    3.844430972272733
    2.160654945088008
    3.9801359516511323
    4.332788371957109
    3.517838386844336
    3.4956784605886684
    3.9035189257272846
    4.001531983275198
    3.5673312616468285
    3.937471942013937
    5.340257115918709
    5.568102505003225
    5.8636903246276715
    4.093307061497029
    4.6420846455905105
    2.323817358566898
    5.338133725391839
    6.376994391396305
    3.457492054475564
    2.434430305564826
    4.84024859964265
    3.9533677582926186
    5.091770559573327
    1.8803580569221587
    5.9372509791234975
    3.5042051043135585
    3.9789913871563334
    2.5524672784908207
    5.4301677541311815
    5.336085131917384
    3.1540176829805535
    2.3844434971058366
    5.29170246397805
    2.7525801406642842
    1.6682256872563355
    2.6802167676081794
    2.3573539253049445
    2.2752887842793776
    1.8210597642889952
    4.616776988020656
    4.687951052703287
    5.064436597874437
    3.044018882334082
    5.04291601462157
    5.6545649902893365
    6.840107433489814
    4.01723759677255
    2.794173292619374
    3.7650863207407554
    3.895940724485052
    4.530553122070783
    4.690894699951608
    3.325027091349402
    3.607211966362435
    3.0609930558226512
    2.660004383921053
    4.090667344725845
    2.4393498195894057
    3.311741936678011
    3.448820221654819
    2.4430181348643956
    4.03915028639317
    5.167761017020405
    3.246347816423274
    3.7116622177025302
    4.220673305885787
    3.8380292167777643
    3.442755581496796
    3.4070150125676166
    5.095902810393686
    4.297617590938996
    4.959268682471945
    2.398614234781795
    3.602912149000622
    5.854112073109901
    3.330594582194375
    3.563599646392851
    4.86331172893879
    5.386341879326434
    5.26453668552187
    2.390697728850193
    4.679169491108946
    5.452358427349503
    5.265169068610487
    3.0950087113369444
    4.529033878524994
    3.81749680918852
    4.2082235501542025
    4.5805501061005085
    2.031802441723018
    3.6085274782430763
    5.329220454029111
    5.1907242407129655
    5.246425667316732
    3.584144520157498
    5.120993917722273
    4.513399973067513
    3.395979716230801
    4.048404769751191
    6.414036288077223
    5.742868152626228
    4.581923499799096
    4.06269824749601
    5.152600650027861
    3.9619064056669693
    2.6725439467731382
    5.504730107668188
    3.1221743135927653
    2.905930044248053
    3.9218562843061395
    4.591431623573966
    5.703010221807029
    3.611342939730191
    3.9777412125713307
    3.464676271714968
    3.4676006690740637
    3.5858295241910603
    3.6897165510834635
    4.000190691079524
    2.3265549835454045
    3.058627566002451
    4.606994432186572
    3.510797464546926
    2.802312339604452
    3.4418259043523767
    3.0103137799526083
    4.502033508155869
    5.753816714336303
    2.103278645971324
    4.376236341041792
    2.5308913683252134
    3.9690275872279246
    3.2673327505846395
    3.8342870295022444
    5.287735929595373
    4.750257525966273
    4.572232215750998
    6.492399283358862
    2.846207901651203
    4.742630120773776
    2.678740296699549
    5.2174478443681185
    4.511422476437934
    2.7260029595074995
    5.50274309621922
    3.1021192768262678
    6.100832044655483
    5.2733627377068695
    3.0753236953244447
    3.334957391184547
    3.6050278307617836
    4.42162577378263
    3.3921825984933482
    4.462741334664524
    3.5549629214936465
    4.5124359368530795
    4.92321315540097
    3.7380657534054746
    5.0786418708207695
    2.6789896202075996
    3.4749343042179395
    4.855982058302993
    2.1995518791489674
    3.919819165880068
    4.011389038823592
    5.5518037074908815
    4.230251623478692
    4.312918147342207
    1.8426666857177953
    5.459277286848184
    4.849708004018243
    2.787899502635163
    4.519173265931853
    3.6343878763392596
    6.382934986501559
    6.363109450702719
    2.262887803009682
    3.5916403477318766
    3.353410502386773
    4.630899622998595
    4.461961780226012
    5.9244817391033955
    3.9219010612223824
    3.0252087011042486
    5.584677056077476
    4.7630859693070144
    3.6972637410625038
    5.181431874277749
    3.9839946844516394
    3.529380611614128
    4.094699643397511
    3.308827230338663
    5.005490882159726
    4.606966152028945
    4.966838161796405
    4.917242518134498
    3.284556952382695
    5.977926479608673
    5.007337550022713
    3.550281101753421
    2.0777998978528354
    5.178252074498215
    3.8922186901255977
    4.52819754352078
    3.3333369645825757
    4.371207054193526
    2.525086623696784
    4.2400269881356225
    2.6857206501235362
    3.252315546383821
    4.184383619550161
    5.240576343997464
    5.908240118607562
    5.41923716485773
    4.257160501811382
    3.933771987761976
    4.421478888758319
    4.9527974599854225
    4.0251440592836865
    4.457079466502236
    3.0557881853165956
    3.594445149097269
    3.988289876554027
    5.674120587138117
    4.610596363976291
    4.490365740630256
    4.292787652771947
    4.431567196265439
    5.424669333826955
    3.5903930694402755
    5.3952914479631255
    3.9755775492498966
    3.063085699386867
    5.569354232353891
    4.44491521041492
    4.141831351225038
    3.0662370428084147
    4.834722603982232
    3.2938788323780526
    3.6316870331857047
    3.2937012224161335
    5.3380813938852025
    4.033829465038339
    5.138370004229826
    4.058284021038564
    6.37453745358976
    3.4302087944299897
    2.573013297557802
    3.3844436144234855
    6.0023358677481085
    5.665338056441801
    3.1442653455080456
    4.246809920069821
    3.7854660947689758
    4.472703240439072
    3.965016628329724
    6.786020971276888
    4.356950506942712
    3.4004252072394556
    2.843992094036013
    3.4947258333474833
    4.355573699362167
    3.607724533206901
    6.387509147822407
    3.6085207826294323
    4.520167388357593
    5.522906936707429
    3.559489640867821
    6.384649063594364
    5.288800003563655
    3.259583458793773
    4.956876938798247
    5.109241706174586
    5.314119114156847
    3.214505856638358
    5.0450985203689
    3.527235460342916
    3.096182470028733
    5.257328152632916
    5.528028904944552
    5.792812672999046
    3.935473444504064
    3.645445329871225
    2.9527417222370236
    3.5132755463965566
    5.246358446879756
    4.613399403338093
    2.9881446031780907
    3.2506574129050136
    4.38865443577136
    3.1478356933834055
    6.0338202289043394
    5.453036446331114
    3.9514313273592196
    3.803339572865073
    2.550933806766039
    3.5679055867171408
    4.63621924398848
    5.092377657910422
    5.55898351972131
    3.4849533209338643
    4.633888201338474
    3.9437654003632265
    4.31901677214448
    3.1526877226704704
    5.645544589108308
    3.2275596602383207
    3.7723090597836566
    5.22258866604366
    3.7438860917656798
    2.0273815747145405
    5.618757024722822
    2.149699159163212
    4.1534378423226626
    4.911078765274512
    6.309181392612577
    5.4669858763561106
    3.1848368877813833
    3.8631715103106536
    3.6817382428759258
    3.767578828994783
    3.9167286886700485
    2.97976583560453
    3.913294951135562
    5.017480523691227
    3.719902183443252
    4.27442803788524
    4.0800940285233835
    5.135953416305503
    2.2295949213681974
    3.257045556922246
    3.9747201032401636
    5.897559557643597
    3.4157697917073824
    4.498018606774635
    4.2771731954290955
    3.705605286310216
    2.9515288470655268
    4.419665104287339
    4.7566033818973334
    3.915156518941411
    5.056057037399261
    3.7789675832518457
    5.013603058590049
    5.519829333136142
    4.351489132763975
    4.993685458103608
    4.548449087737704
    2.0759487368806924
    3.135673287399859
    4.000094595808709
    3.953783194689161
    6.388581327007206
    1.9987999382732422
    5.77644436444506
    2.9028546431812545
    5.984981365784538
    4.8000116618511415
    3.594900847275853
    2.9578767293007173
    4.046536638481968
    4.007150197798532
    3.6564451658857826
    3.7398043003231423
    3.743089379817206
    3.4574935962287054
    4.476757126149746
    5.506134776930507
    4.00225287400667
    2.622103950990681
    5.620643425766774
    4.697194567588959
    3.972785302160086
    3.3162915180487724
    4.617677856406371
    4.949891916064745
    1.2149560782209616
    2.5367759317162903
    2.5848255934279227
    3.3818649221688393
    5.2064446605467385
    3.6265272699715654
    3.9452082720658916
    4.280117029890298
    3.315558788855677
    4.279639163504042
    3.9154731840241848
    3.2188802948522266
    5.357633995327879
    3.4051361440890133
    2.9428355618510684
    4.048424713429331
    4.577445720074647
    4.28687163761678
    4.922661207776256
    2.6100964251227365
    7.2397501108486555
    2.9895140323686005
    4.110306655328804
    4.713308090423764
    5.18091789783041
    3.4578487280523635
    2.2215113774962196
    3.890748430279624
    2.1747989003093915
    4.043475162749796
    3.586768716154868
    3.1974257867340024
    3.6008727619949275
    2.6833571866074655
    5.732674961855386
    5.377762771944637
    5.083476544372468
    2.2731636317489174
    5.106620373433051
    4.8496345284685205
    3.2809253748825666
    5.053350511784126
    5.493933959268688
    5.246306467773838
    3.344543131217576
    3.6373349594945825
    4.29385791577784
    5.905351666121712
    5.392316304900625
    6.3381455600333645
    2.730446027761217
    3.7640694684686977
    2.8821760333440913
    5.007044176424901
    3.7953911966935285
    4.138516491117165
    2.377546662652037
    3.9655655034606765
    5.017076936768831
    5.349100611939255
    4.349486527583231
    3.037143280023548
    4.507865651940131
    5.537892865344516
    4.481177112156429
    4.135557905382154
    5.537991625645762
    4.632885709395678
    3.1712233837409096
    4.453804716754222
    3.6089062649649364
    5.625187456826225
    5.598398306637508
    3.1001687388516226
    4.067371356330985
    4.9109224755560374
    4.096948532199935
    5.074323728621616
    3.0733165970345455
    3.6807749114629287
    4.173851457832342
    2.3720876231280568
    4.3184840744089925
    2.4459412988209777
    4.704415170202505
    4.891810551211337
    4.022015759565346
    5.53974393821648
    3.3814852103950943
    5.146490990678102
    2.0428095019522967
    6.223724747076082
    3.3456966268680746
    4.274198008316505
    6.315876301454908
    3.314114122111855
    5.413200804857334
    5.390384444164038
    3.160784041068479
    5.096254242009804
    2.6166544262860896
    4.428054223631993
    3.922942515469572
    4.650456893750786
    4.650101938127487
    3.242506912896598
    2.450563034238768
    4.449885954693892
    3.05479873220037
    3.6666643021594947
    4.813331307742816
    3.0405652671965906
    5.2380742988990034
    6.854876018984017
    3.5800792254735763
    4.088997933735776
    3.994659585608694
    5.485723815438735
    4.05566517437397
    4.043034639827134
    3.90109145743079
    4.189399625296364
    4.430311680607053
    4.701662920594199
    5.522126104816314
    2.8356038997432433
    4.5024922457906476
    3.096511171798534
    2.883328824193153
    2.3342831312931853
    3.608068300107401
    4.610963169073736
    5.078047547009705
    5.156068713594795
    4.632091662477635
    4.098430346246797
    5.938347650158203
    3.385896474484004
    4.247778867869262
    3.628839591333423
    3.874161545180239
    3.806959278866011
    5.363293462760274
    5.647969634649866
    3.0363325821715748
    3.451559696737095
    5.765834636025431
    3.9617671302956654
    3.582866627053513
    4.889862656242077
    4.629956995127786
    2.965432553097351
    4.357271830322478
    3.3208998622392754
    5.288391130630488
    5.139824890594474
    2.7811451261716527
    4.355471569229055
    3.0654666067384837
    3.8486636572977493
    4.567639289091912
    2.9377867167629486
    3.624946576550559
    5.07926632489323
    2.5027049492892566
    6.0347364707713815
    3.901153942483117
    4.443316126081438
    3.6617498538952375
    5.359210636140627
    2.0565030890559575
    2.5689002525765785
    4.731259294903246
    2.8535855868848405
    3.5895598179423445
    5.027201497499825
    6.1601218796714114
    4.894179212637999
    3.8931814929375177
    4.349610198210237
    5.46254139849952
    2.34822551330382
    3.934753721099971
    2.755060601218762
    4.427768558799889
    5.355862741218563
    3.3985318903314106
    4.310867593638758
    3.4959158465223936
    3.446306194931943
    4.716904295701815
    3.8089906047052793
    5.218925636779441
    3.7687776962377355
    3.9179926839707138
    4.930265839072346
    4.258891934639552
    5.030224302759448
    6.972785246649703
    3.0466684952332446
    2.3888282430407095
    3.4208422476436144
    4.890607455159767
    5.124193804342737
    4.62373967735865
    5.318975019851811
    4.192088674038385
    4.773434612844626
    3.5067162677806003
    2.899094175118483
    6.495963464221656
    4.83209334222454
    5.493236998748479
    4.220894547461615
    3.1773607946472184
    2.5397664042100283
    2.897926407238902
    3.6795525214720435
    4.259751803404222
    5.644059748682623
    1.9429955225596127
    4.4919811014719055
    4.410593142476245
    5.0945858889101725
    4.863277898469853
    5.847662082766644
    6.070968022001044
    3.573366960895878
    5.113697901355053
    2.275028888749784
    5.500104848243216
    4.960145191158022
    4.948041724194576
    4.11929430664466
    4.28217955420564
    3.688778988972977
    5.563499446823493
    3.0037575407928454
    5.690828257583628
    4.844055408399851
    4.4172192230533245
    4.155729113247875
    4.653183770507391
    2.8533014638058782
    5.155206389037621
    2.7024008333130363
    2.816167590537538
    3.691974778935094
    1.86530578884989
    6.218618813071632
    5.222478276518717
    3.254202916529748
    4.457866795781591
    3.9213077505633827
    4.570287360237932
    3.032915704808944
    4.551763460541459
    5.432306033588391
    2.644045388801131
    4.607099579750833
    2.2876203426076085
    3.6408908589405007
    5.011259681914909
    4.740781074205942
    4.348936055636525
    5.057009312239728
    3.1853047878348315
    4.226116300164571
    5.098927906257977
    5.030715901761187
    3.6901561269291947
    2.106394925521421
    2.458076393748872
    5.594985834283853
    5.362318281873131
    4.236716359589496
    4.544316792867255
    4.494806298028857
    5.155237047900095
    3.436909826234799
    4.153877473231006
    4.9335090709811364
    4.308709337465841
    6.035672975679714
    2.1687684430210235
    2.613476652810685
    2.4009021964440143
    3.363052318184069
    5.852886423412373
    3.3711021196872895
    6.251633474346182
    2.4495710262173365
    4.31089941982861
    5.618467879933626
    4.393307534853061
    4.6427862313701445
    4.8026897311082895
    6.141814133765399
    1.9303166733237012
    4.4265248926156495
    4.427981739209291
    3.9479026618812965
    3.1171321641182894
    5.40050759529216
    4.354578563784362
    3.9925299509816004
    5.191882317572799
    4.889478451359176
    5.064374046746975
    3.9993162967977556
    4.043283247521226
    4.2178292558904165
    4.076145690957475
    3.658503538480164
    3.834407220172159
    4.566050754754928
    3.5493115152276773
    5.732115525715413
    4.726393786288715
    2.9527051606625214
    2.8162931332933585
    5.05243691292247
    4.796590908080612
    2.296087827061949
    2.5122698095797387
    4.611351382514806
    5.854699701307322
    3.999089240610079
    3.489857813877835
    3.3081428681441265
    2.8693360488798314
    4.5553928355371
    4.755876026815189
    4.1358094231353
    5.017737511914897
    4.1534719536109215
    1.7780795631074913
    4.661705304421869
    2.0234433204894913
    3.5458801013354257
    2.3889313202507516
    3.9842068296839313
    5.086901086450717
    3.879029961100695
    3.3311674095616355
    4.732065455595974
    4.697459000277798
    5.108443166147388
    3.698967774734843
    4.364026735387066
    3.4296172457745806
    3.9660160257537136
    5.881117068738451
    2.827118795252998
    6.359286431512487
    1.2979788681979465
    5.092172120191594
    4.972269890264732
    4.479769183187467
    4.338324234837633
    4.346548650896669
    4.140500479628723
    4.186379380448208
    3.8560888505531947
    4.734178670552109
    4.813245586268139
    5.159481890749885
    4.452033088219143
    3.8874396298122234
    5.239628297965615
    4.833841646237089
    3.2171989029260253
    3.8474305851600965
    3.4938239518097034
    3.365302000318285
    4.426186940326998
    5.25127522979877
    5.229197677210957
    3.2613595584129618
    5.532947361766977
    1.4670697189573167
    2.5979137560978995
    4.406174389872075
    3.817911012182549
    2.9040965033118145
    3.2762847860263578
    4.1147528332435455
    5.629079722757563
    3.5945714407046157
    4.769021762952485
    3.79627435694316
    4.533363693997934
    5.115969300183522
    3.1231954827736192
    5.253717454875335
    4.0861677746608995
    3.936206779385893
    4.886728580455716
    3.0857792484299074
    3.0228765131519086
    5.2103733999524
    5.253652613143206
    3.0535497359552686
    6.492619533807671
    3.64311785527849
    2.4976642094176533
    5.175994507397932
    3.3549810642871343
    5.241364576303659
    4.247409397741387
    4.136528766607369
    4.4383725386828035
    3.9196335167767673
    4.211699950200623
    4.949573345815589
    3.474809862714363
    4.166664013923862
    5.169889341157328
    7.083306393260568
    3.2875882152595524
    6.139688981234939
    3.989772877888465
    4.02605543361581
    4.640171021591086
    4.351237254350718
    3.3967623541755962
    3.468361061723529
    3.8050342018432484
    4.568507516361113
    2.35268479199057
    4.896450963867186
    4.157890838365359
    3.618072339792807
    5.2326561378583225
    3.9726675012075408
    3.1063909021306326
    4.933570476806263
    6.0284875250377965
    4.3184369848630375
    4.345229526908667
    4.198016935118505
    5.620260013785488
    4.147502065195976
    6.203198462449315
    4.514789268848505
    4.235636945177455
    5.692657041110172
    4.776883426522334
    4.541153776171921
    4.596583986373025
    5.015867585604515
    4.313916718827013
    5.227174632788564
    6.687565849053172
    3.4067028736315654
    4.4229665043396595
    4.121798278934548
    4.273513040433234
    5.243178559000043
    2.8446583075935683
    4.489883876698354
    5.261710696063302
    3.478293211662444
    4.989256750179153
    4.500052928020007
    2.529576561246008
    3.4802461283419364
    4.742268469536833
    3.2204483899475616
    5.236111955500302
    3.3556185571861645
    3.6703656990518954
    5.105125930087798
    5.23712334556123
    4.693042670428565
    4.611710478846542
    3.576571208475229
    3.0891544544076233
    6.008341833186568
    2.158335795962237
    2.793180579796506
    4.146152739365181
    3.3103144494691956
    5.262689929558703
    3.808390642482726
    2.691434211066159
    4.503878678315805
    4.270846875712843
    3.6208462620452764
    3.223158968170954
    4.774203815512044
    3.2332375406082363
    4.483094392313303
    5.076512489481692
    4.638053974277142
    4.042270860827019
    2.6739530210444338
    5.73270755892181
    3.742642822032247
    2.948950507211599
    4.395994370078072
    2.4322921142077965
    5.24626532499
    3.2967942435188364
    3.140368674567731
    4.439560789854124
    5.585738310840013
    3.33930152293666
    4.627088100881791
    2.4031425840092915
    5.364570122461746
    2.5295450213817388
    5.593117758077241
    2.5528961501647403
    5.794460146356132
    2.111072692653389
    5.1994693288329845
    3.2134713843303957
    4.923502388290345
    6.147125869789217
    5.524679424219258
    4.230643162701537
    5.4866032314307365
    3.0614810427170305
    3.692666056993723
    2.628385669991049
    3.11404407662564
    4.194641431802684
    5.329897503908747
    4.588183281854763
    3.6462358527820875
    5.111228893823913
    4.250525457041035
    5.615448158180287
    4.180837603843133
    5.31931887485249
    6.300616997960761
    4.557234790040483
    4.196825842716396
    4.71074556455206
    6.519100861969134
    5.049963412282175
    4.877203365246019
    3.173780227151034
    4.312504296748895
    4.38977509207994
    2.898546544402566
    4.800490926827748
    2.2838785517828963
    4.117211465601981
    3.8937231768913168
    3.8874830411756833
    4.5970256766230655
    3.0246437146529654
    4.420169654015469
    4.939716081029268
    2.646600910708562
    3.9926744793261086
    5.331646028171745
    4.858724000190295
    5.022863092259381
    4.558076587255828
    4.715629442054023
    4.498950662623901
    3.3654978910674553
    6.4764085721743125
    2.6358989414009732
    4.757332675183427
    3.360141620402889
    3.940180108494915
    2.587476704030137
    3.6376579788028045
    4.953430283574938
    4.473515347893918
    4.662393851374933
    3.7534424944389277
    2.3124191335405366
    4.660489610044627
    3.6933229759823383
    4.512323432923829
    4.62867196590926
    5.7594861370889845
    5.357940319652081
    3.5334046313639433
    3.772006567817263
    3.859411702999229
    3.1193274443916503
    4.633903795070249
    3.4030040756944606
    3.8027025204669402
    4.966432196169162
    5.017194110007598
    5.302900349196175
    3.1941052028675907
    4.433413137301946
    3.5349666915969804
    3.1817919693767003
    3.1915613982840356
    3.058521317185946
    2.9493666043594873
    1.8215439628756553
    3.21313977525467
    2.56519105881829
    4.213337347099676
    4.5101046739526245
    4.593801210052513
    5.472196120973116
    2.477650667835711
    5.03620031413687
    3.7287645108771708
    6.047923129442065
    2.5548914430305834
    3.2588636803270674
    3.341724718374447
    3.4952203396551473
    3.746070689892273
    3.6238092032329132
    4.271455791116141
    5.8386617684265465
    4.249891433086574
    2.6054482596510886
    5.815890867425885
    3.1746749725742722
    5.978072197305605
    3.4552913119910724
    3.2269674508315656
    2.263354381560437
    2.7879263731899178
    3.464998454071485
    4.127884641293084
    4.23185863682833
    5.020184934902053
    3.594574171810181
    4.437669565325343
    6.312589988558332
    4.464314759820719
    4.259536266315018
    3.6538433032839217
    4.2461261085014055
    4.592513229477973
    2.5210724271169855
    3.6010971531521734
    4.763110284956563
    3.363210854457121
    4.5051946306973445
    4.367172792797842
    4.5957646547034585
    4.372215955424382
    4.899774983640599
    3.2184545947847703
    3.5866216329051537
    5.241913792822807
    5.435364255120183
    4.347082890385298
    3.3846390206216683
    4.560434280210139
    4.115834335905155
    4.878338271758638
    2.261989533579263
    4.3063456757243666
    5.132137533229812
    5.483352951507585
    4.4118825326536575
    4.45421070440651
    4.794953213843454
    4.513372265561053
    3.874433576509562
    4.797675289140274
    3.867046046080863
    4.877038882210849
    5.393789251802074
    3.4004290836473547
    4.973833932751809
    4.714160283460293
    1.8254617778590552
    5.494011311226309
    2.6504120363745596
    5.066248289966154
    3.2593802116796127
    4.8459870929360775
    4.5069796284346655
    2.4633291026524082
    3.057697140006506
    3.003536585542601
    4.437953402078722
    6.246985837475611
    2.64909062178189