// -*- C++ -*-
// File generated by PyFoam - sorry for the ugliness

FoamFile
{
 version 2.0;
 format ascii;
 arch "LSB;label=32;scalar=64";
 class volScalarField;
 location "0";
 object p;
}

dimensions [ 0 2 -2 0 0 0 0 ];

internalField nonuniform List<scalar>
9780(
    0.8412135624815495
    0.539085909688395
    0.8778110751817734
    0.6426666723772081
    0.5937198314376997
    -0.9475471267883181
    0.5927528190292736
    -0.7676676661135112
    -1.0035836370816815
    -1.04312732409789
    -1.0273152169454365
    -1.0202287579109772
    -1.4557609763742558
    -1.4373768897346015
    -1.0130431642135733
    -1.0608557993105183
    2.017868687939982
    2.0504398180538965
    1.47389534742892
    -1.8460907420286012
    1.9297319371816908
    1.9540447132688752
    -0.8462835084330613
    -0.8780655420394694
    -1.3724795126702896
    -1.3331131636975095
    1.0094747488499012
    -0.8645640943753926
    1.320068655953863
    0.8934387815881276
    0.17609400408796894
    -0.8687308321256895
    1.155514104359991
    -1.132100940916298
    1.2428797363993922
    -0.7671835499486129
    -0.5249395900064532
    0.6856651767144835
    -0.4508915827425209
    0.8119653697679193
    -1.2209887780004485
    1.579366667209965
    -1.227240297166428
    0.26208430319498244
    0.2558712436553655
    -1.0872729397617003
    1.464485901279604
    -0.5830391478531891
    -0.5282436186254961
    -1.3056169064845973
    -1.4235708469662438
    -0.6677261214918645
    -1.4206884937998494
    0.7220353988014793
    -1.0828247854131607
    1.0719584793796169
    -0.5002912071296237
    -1.1982662657292058
    -1.171620101092322
    -0.513045581367086
    -1.0294368528277837
    -1.5486640241332177
    -0.3457241517954895
    -0.4459862789120085
    -0.6088362151130574
    -0.6405345235896212
    -1.0705604022250912
    -0.6625275870877326
    -0.6027896427373107
    2.150637738782498
    2.0323413214276993
    0.2980472962666112
    0.2815975233725547
    2.0214424154914723
    -1.1153773598809673
    -1.1529127994958905
    -0.2453550086819089
    -0.23165334944870816
    2.0533406626600113
    -0.24853608206808964
    -0.17419253280057284
    0.10925581238128244
    1.3712393493452832
    1.4284722814711024
    -0.4515531653636232
    0.8752005718618219
    -0.503246787681438
    -1.0617598894587852
    -0.7354518541503321
    -0.273929724541075
    -1.2772984222680133
    -0.5020055176870222
    1.0209125389999203
    -1.412990147888536
    -0.5966936314428675
    -0.08577172094343695
    -0.25981313152595714
    -1.4686409062032908
    1.3640556818395169
    0.8062687222063232
    -0.25729391363802745
    1.4609473588286923
    0.2949139603298472
    -0.254838340332121
    -0.9456767947082801
    0.7478530442086752
    0.7078974090075879
    -1.2797008968911119
    -1.245303865517598
    0.44888601506714954
    -1.2545908058787674
    -1.265162259236615
    -0.31749729009446365
    -0.08517189282881353
    -0.15648688295884922
    -0.19639192352625742
    -0.5611056357798712
    0.9205105061641289
    -0.5328643597447579
    -0.17369116116892172
    -0.11209246352895921
    -0.8508206528352545
    -0.7762247724632217
    -0.7546667714496395
    -0.7440524282246629
    -0.36778691132768554
    -0.41102602910368197
    -0.8518614383833979
    2.174279558115944
    -1.178982390769275
    -0.9376078495259066
    0.02619720904977793
    -0.0027244460265006217
    0.7273089904730867
    -0.9785342853123071
    0.6715862567974763
    0.8599785214143307
    2.208765579543112
    2.2251035370126098
    0.4296716756253334
    0.39923300017013014
    -1.130360690978181
    -1.1350354296696814
    -1.1204010602907997
    -1.1137791986793117
    -0.8037381727817079
    -0.8232617301877349
    -0.6053315094285784
    -0.7727286062283357
    2.1427478010096386
    -0.7586384501934429
    -1.0479245043711491
    -0.8014250092442026
    -0.8819222271425124
    -1.032783353972434
    -0.41808747975004734
    0.2642255220256446
    0.3014138940106797
    -1.1327700998911747
    0.542467595933624
    -0.8775759041252102
    -0.12449256698238871
    -0.08763909551673153
    0.7846134485150458
    -0.4205550596504944
    -1.205379306208263
    -0.8760402799453864
    -1.1284850939743338
    -0.4389556473318435
    -0.9909516723227841
    0.34447811358598873
    0.40657435856462204
    1.6775122949551702
    1.0229076240916821
    -0.9487208195594509
    -1.1960431837539487
    -0.34589282197654886
    -1.1967875926154647
    2.0256254616643004
    0.5099851990478114
    0.5776212995887462
    2.0296693083881228
    1.0227174447706704
    -1.1243585494228732
    -1.0803641398026087
    -0.14023212091649528
    -0.21308903547816926
    -0.6482843630240445
    -0.7114628066710279
    2.030781876677958
    2.0237559000609173
    -0.17148907468251376
    -0.11166317560644327
    -0.6750944465692817
    -0.7007572261688205
    -1.2975286993858486
    -1.3114865260552433
    -0.469440904521481
    -0.513825046916405
    0.47435283677076395
    -0.836442916388879
    0.8069581061933938
    -0.6646746486996953
    0.04004897479213139
    0.010372224503647814
    0.4060471278102371
    -0.8410531276605224
    0.9543857964294248
    -0.6563545923341763
    0.1455409449526905
    -1.1111340881162726
    -1.0940815135492523
    -0.4759701163152039
    -0.05009302933704774
    -0.11436533354514704
    -0.409104267706922
    1.0787814353980625
    1.0578366695954806
    0.19318787941401724
    0.015448160822950325
    -0.4795513239108868
    -0.4162044669083956
    0.03853961905076427
    2.024237191144747
    -0.9331351683371826
    -1.0181601565050498
    2.016643758471291
    -0.7598998488904709
    -1.0133255439076347
    0.48353332294076595
    0.5181887850256479
    -0.9806376865804858
    -1.149955068030081
    -0.12071398092444884
    -0.08186632526291031
    -0.8592263605222555
    -0.35228000924019814
    1.5369601457692894
    -0.882357097007878
    0.3823291597007208
    0.3402510218310493
    0.1542978615816005
    0.4505382380474317
    0.5181758153352886
    0.13045746794192237
    0.3421537460337918
    -0.5464354713397253
    -0.580486012940842
    -0.33223570592496593
    -0.28223011770029427
    -1.1174991883824783
    0.6322783356377012
    0.7005601598219228
    0.9338975380449367
    0.4415043350610454
    -0.04664986136843603
    0.8714030850484388
    -1.7422069893952055
    -0.19834045898677902
    -0.27364859687157805
    -0.6999405209145093
    -0.6227823562198512
    -1.698943697914158
    -1.1442543112596582
    -1.1371634861908206
    -0.16596643445797266
    -0.10551042994247639
    -0.3115371716200479
    -0.34188387142455934
    -0.11009307259630767
    0.6868944080111649
    0.8594306483062303
    -0.5660824013201358
    -0.6171639120387387
    0.2993859031451101
    0.2591011781027515
    0.7915119754520704
    1.1004035785931745
    1.1306408065062865
    0.05433605984456579
    0.023024715242182685
    0.3957037676454665
    0.31460596319457584
    -1.1531918404577803
    0.09626039131198073
    0.18359679339328253
    0.719694883342721
    -0.47072073045184143
    -0.5563752301500461
    1.7242658456834152
    -0.5065777187770183
    -0.49413988203198955
    1.691294196121671
    0.22558968123139642
    0.26962120214387725
    1.7357908923146144
    0.2112437429986371
    0.2866577251139182
    -1.1158211544342533
    -1.2072981783175665
    -1.050282548173809
    -1.1378119707087877
    -0.8742334479829987
    -0.8312357141223783
    -0.9829676079852376
    -0.5583268475171878
    -0.6207080404453992
    -1.210602624278131
    0.5995844429100882
    -0.13497409929395787
    -0.10521483577120176
    -0.3811621613363104
    -0.4402184906725997
    -0.21636511826687096
    -0.4359739026769528
    -0.4097554488931817
    1.5317650785101051
    0.6730133079753315
    0.5406626259564861
    0.6010886059598324
    0.42705012880666016
    0.40861686007386094
    0.49584534726867036
    0.24823723254474545
    0.27577429291717914
    0.7707787696976769
    1.4581551514309343
    0.7412579566609488
    0.8036629059526896
    0.5476780085195206
    0.4836980444289684
    0.6906857310113079
    1.4853125273284176
    0.04120702528200767
    -0.22984645327993267
    1.9058832448663743
    -0.7613893086773821
    -0.6986798926941363
    1.9287407189650199
    -0.4349133736645248
    -0.18945904617169693
    1.9460155760470106
    -0.4179228224682328
    -0.44555079908595774
    0.2821938723035329
    -0.5531557292406968
    -0.6654225247061588
    0.2433344648665558
    0.35845093244696224
    0.331643096125302
    0.27096937577417585
    0.22238420941780704
    0.08488845283856958
    1.731527074505786
    0.42223413606174104
    0.3489223192416713
    0.0915683168957425
    0.20097657976472766
    -0.12595591082101443
    -0.5101047361812988
    -0.6074846706473932
    -0.30429907314892435
    -0.5954339021119253
    -0.582781551824864
    -0.6436319039491513
    0.28990454584132647
    0.3417293739128508
    0.15861718581278342
    0.2360483881720609
    0.3250747184349494
    -0.9956930572449431
    -0.940093021976643
    -1.1513049431296596
    0.78406512596223
    -0.9584622769406884
    -0.9051727727479891
    -1.0752312885333166
    -0.619952074434058
    -0.7000685484520169
    -0.29429290888189974
    -0.37998246526790747
    -0.17886456679798232
    -0.9260244392880905
    -0.45869946475162166
    -0.5159185604008444
    -0.28648046821925677
    -0.5263072181722909
    -0.5034176087764927
    0.5141593847391066
    0.4841063328497361
    0.6042076880784788
    1.7669517933243082
    0.5150383059833099
    0.4907051764711556
    0.562017670577861
    0.3202681640290542
    0.35591821516597283
    0.7007270964305083
    0.6241309944556804
    0.8348579647607556
    -0.9401976783889486
    0.6283211675375672
    0.5463443776360853
    0.7816848025429629
    -0.06566412116519094
    0.03977486969631291
    0.7690247795925454
    -1.0187545792443904
    -0.8431529975773656
    -0.7766772348788767
    -0.3930178066588969
    -0.4911799675489908
    0.7862448686256427
    0.7973421080941472
    -0.4973099761258364
    -0.5334298575063416
    -0.6867880349687643
    -0.6629229700245289
    -0.8976395656663996
    -1.0688836524046246
    0.43860515982101667
    0.4151422194843088
    0.23811743902270374
    0.30730852196941955
    -0.889476493919339
    0.5814153192571817
    0.4749685760308932
    0.39006310805413447
    0.09994447359270447
    0.21614053948275042
    -0.10341284336530346
    -0.5755127145455249
    -0.6767302969206449
    -0.38017665748816404
    -0.715704088037697
    -0.6962142389853267
    -0.75832929643562
    0.39040818528599736
    0.4467040251801598
    0.2512792991010847
    0.26740238989341675
    0.3701845535293114
    -1.0844876666538372
    -1.0260256316441125
    0.7332899439203817
    -0.996993429219437
    -1.0281579899932423
    -0.9696584584529738
    -1.1554183895779848
    -0.6899890444383935
    -0.7777926924561682
    -0.37982188509172565
    -0.46761156822012834
    -0.8790077065757714
    0.7879052458171903
    -0.5490769542418469
    -0.6065273534035426
    -0.36781638205973965
    -0.6322692994793837
    -0.6065423776983153
    0.5776894867727146
    0.5607178122544704
    0.7837559722044071
    0.7503662748509315
    0.5859988206714514
    0.5719497567248258
    0.6189584636386551
    0.4173440491451651
    0.4540031678745959
    0.7856372193703911
    0.7078256262658961
    -1.3816661626535316
    -1.3941197620667942
    0.6984358272712828
    0.6133204365092277
    0.8629835087816475
    -0.03772629956774809
    0.061880992617748765
    0.8192111890571899
    -1.425249587184736
    -0.9128933340695221
    -0.8527340674015852
    -0.4672465870080111
    -0.5633935341037309
    -1.1392509642747957
    -1.0912332539748422
    -0.5832835494687973
    -0.6368479854145596
    -0.8040034735765832
    -0.7853168464370613
    -1.1381884769675363
    -1.0355910993160682
    0.5244418451449374
    0.5144511385658039
    0.3453923804467406
    0.41437302695705663
    -1.1338870342153884
    -0.9709920251300211
    0.5405065402274586
    0.44707841262810694
    0.11817992244432972
    0.20175517852780975
    0.25498407189031486
    -0.6376925562412269
    0.23580315187340983
    0.8227779181123973
    -0.8279108505304562
    -1.1014310903613977
    -1.0643749514322787
    0.49046876855084315
    0.8688242354777307
    -1.2180307897090872
    -1.209426748489809
    -0.029546939462652633
    -1.1657806585239971
    -0.05343989857115141
    -0.013951851907810148
    1.658015383200129
    -0.9096615055336925
    1.6639968502985274
    1.710746034992394
    -1.3461091786758994
    1.2954419106297617
    -0.450801180148333
    0.8115851395386716
    1.3338506855331393
    1.2321644607326094
    0.704947703340268
    1.401236959018687
    0.6608311731701844
    0.8878774168858737
    0.9045602268648769
    0.6351238985438188
    -1.0991867560717399
    -1.0635188234557862
    -1.0509452865098938
    -1.0709511623019574
    0.8154208933592536
    0.8078465299830089
    -0.941927591098611
    0.8098498976988121
    0.8794283056806405
    -0.9823950796241769
    -1.361701571568899
    0.8027311428512303
    -1.378997488346127
    -1.4031483359229833
    0.4610129644818816
    1.2788381387142849
    -0.8995622259525905
    -0.8380727313397779
    -0.8266841874892916
    -0.9729187304186508
    0.5040702497672955
    1.3097929372187636
    0.4565917447130735
    0.7226192916932014
    0.6834147428179737
    -0.6725849398975245
    -0.9553000481293615
    -0.2939791964705346
    -0.9183823381725928
    -0.8828280508632532
    -0.8477316193061536
    0.6022416242740557
    -0.03730918878799064
    -0.274770667706825
    0.05894448938894445
    0.045467030836553284
    -0.18050529683482722
    0.6034979506664382
    -0.3357681808722194
    1.0010415608288714
    0.9583333335713712
    0.29474564328392133
    0.237819778208318
    -1.188041398453337
    -1.188927446606599
    -0.8024449919226606
    -0.7626568069812624
    -0.29224055169211544
    -0.26604660869693186
    -0.3325179251030575
    -0.2739532401306498
    0.013895654376003371
    0.09827213796140716
    0.0633414391431197
    -0.4861917411684829
    -0.964066659922847
    -0.46441585577750244
    -1.0547843148562595
    -0.4512624709423266
    0.884260285816151
    -0.309764048011317
    0.5206932193927596
    -0.1900182196040708
    0.7760897936934402
    -0.36128928907681807
    1.4947842536740135
    1.5232237027254343
    0.9110891176266602
    1.44746581514487
    0.8654292585102027
    0.8356997747127426
    -1.1430618702232536
    0.890374403311987
    -1.3678612756001565
    -1.390232707342266
    -1.0722652744434658
    -1.3531476113321963
    -1.082779263084127
    -1.0161130642390748
    -1.1082900661634651
    0.5198062723500667
    0.5457639518893107
    0.618901705191736
    1.367671015130378
    1.3192454016479842
    0.8019117409286266
    0.7921777314883874
    -1.441286159869349
    -1.4094207863714239
    0.4352888035754937
    -0.5307256449632245
    -0.6098199853887301
    0.9071130728484785
    0.9272715030182341
    1.1055652585306415
    -0.9018466250283087
    1.0506098553970336
    -1.1051348358484212
    -1.1244387432013823
    -1.2882204425038906
    -1.2721177372397225
    -1.1599378772235007
    1.535683465951937
    1.5026038212457153
    0.80073015077178
    0.8030614847170661
    -1.483183909892166
    1.032374599164572
    -1.4549848495571085
    -0.6671693236958435
    -0.7385699089667718
    0.3878541193810254
    -1.0730769715995192
    0.38862074365276084
    -1.2329360458385932
    0.43902574376507053
    0.6959240733759486
    -0.8366840755818973
    1.2273934124592325
    -0.8489887161751911
    -0.9142814761762993
    -0.3219020088215769
    -0.24587455072134068
    -0.20295068631001936
    -0.6824526912437959
    -0.9339086626924252
    -0.707275779702149
    -0.8702724274995897
    -0.9259482263056324
    -1.3216509109136938
    -1.3097131456209608
    0.7773897162232188
    0.7880275589861733
    1.1330124620631847
    1.1016557315703424
    1.2122173337854902
    -0.9654748986290426
    1.2483420306450894
    0.07071055074878894
    -0.0007688117472148822
    -0.06316747282583905
    0.1774693209687597
    0.12416598029946416
    -0.644410791640979
    -0.5511933573035789
    -1.5068285543066806
    -1.5453150189394387
    0.796617346387334
    0.803801206512264
    1.5858214638000916
    1.6000829866843362
    0.10552237143984709
    -0.41768281899019705
    -0.32736096433510226
    -0.2765246417603595
    -0.45817746681785204
    -0.4474357060160531
    -0.4888887304929593
    -0.5836208898309161
    1.6057872105997066
    -0.07321639453431755
    -0.12091099822577381
    0.0031504023518613925
    1.604340897505476
    1.5728560110623504
    0.7913240433546358
    0.7937048804250062
    -1.496059345274047
    -1.464092654095988
    -0.697776829848076
    -0.7789622118120862
    -1.2973923250179118
    -1.31295145900197
    -1.120208441127047
    -1.0967090957683898
    1.1694140168674843
    1.2211241723301878
    0.9110242691748636
    0.8894091886824226
    -1.377467963773155
    -1.4029473699288013
    -0.9476528105028305
    -0.8847179016852181
    0.8311854235782601
    0.8173368119747131
    1.37930264436552
    1.4284349133533343
    0.45642548227156104
    0.4275557541115108
    0.5446962638646299
    0.47834804715573914
    -1.0080120158627426
    -1.0163968564736703
    -1.0211911474594733
    1.1287026724806075
    -0.4606036978044802
    -0.4126161966100418
    -0.5422138371277588
    -1.2090090217300173
    0.8140167638618848
    0.5385090152929558
    -0.9800086565980577
    -0.9408253600372305
    -0.25300508744110534
    -0.9814455955596523
    1.4099049498003313
    1.3734810511730364
    0.847611536418369
    0.8715802946790913
    -1.3725451315987411
    -1.351775007171295
    -0.9982340892531677
    -1.0548437699714712
    -0.9915056450377367
    -0.7786823361671537
    -0.8350520776138092
    -1.0037533987713356
    -1.0245307143142284
    0.6697279313119788
    0.7079825466779666
    0.6238825157344395
    -0.6669162221146726
    -0.5609605614463714
    -1.5243082297661283
    -1.57678616521555
    0.7865456755530363
    0.7885909700401498
    1.6526852257007663
    1.6734371155140437
    1.1826796986751278
    1.1220202000389254
    0.9363564500830148
    0.9655246416372998
    -1.1592927314377053
    -1.184642569102534
    -1.2894386945082381
    -1.2680821089335532
    0.6439497728333522
    0.5619270111581215
    0.6486717032199721
    0.6793586968804466
    1.043421693444113
    1.0524564311135423
    1.0097242548733487
    -0.9848498182470404
    0.6675341274496122
    0.6040380548016006
    1.147078027051505
    1.1511466574410638
    -1.052560141372408
    -1.0216902237127563
    -1.209316827153694
    -1.2084646799732526
    -1.0378568785392905
    0.9487538689068495
    -1.0567393993683487
    1.1401924055984518
    -1.1565892572680492
    1.2528947771995464
    -1.1674233147524795
    1.1544386473623722
    -1.1504126027503814
    -1.2526917093369423
    0.3508478046089305
    -1.2715950972420735
    0.41161924708246717
    -1.1838343390914279
    0.33861712977451763
    -1.2373781005802806
    -0.8418768956175045
    1.0188696843555478
    -0.8869799569379412
    1.0389995426826801
    -0.8356936920482692
    -1.222953108232398
    -1.2082576785786063
    -1.2200505942601974
    -1.1992762322111488
    -1.2296761591112437
    1.0606483957351658
    1.0824441530032067
    1.0826498702700944
    -1.036026675451701
    -1.0228925525329002
    -0.3268214701606251
    1.1082734839730035
    -0.267058742144467
    -1.1969190872979198
    0.4604604043074632
    -1.0684568083377486
    0.5017403925689317
    0.7015325655669339
    0.5758334727171822
    1.1892683013776744
    1.1810321627611637
    1.25181123019705
    1.3003864445632918
    -1.3003319502823285
    -1.3201577271562834
    -1.1687066720341754
    -1.1375340854618807
    0.9352315541666995
    0.9135601004656669
    -1.2030279398699466
    -1.1782147391953328
    -0.6606259864967787
    -0.587328134566081
    0.8758574674166063
    0.791010908800762
    0.10145752922717534
    0.017061025287439014
    0.453949362921521
    0.38233625450658565
    0.5400915101359596
    0.5729606220961996
    -1.3960752318172107
    -1.4203394678751295
    -0.9736245512410284
    -0.9053634657201043
    0.8298994338346596
    0.8100520836143644
    1.489241444617868
    1.5201546373829757
    1.6715043748249498
    1.6201849794391125
    0.779840859288359
    0.789264238223853
    -1.5051056400933012
    -1.459144010953631
    -0.740144955868777
    -0.8444414913700949
    1.2152491594229566
    0.9943509341759238
    -1.244895127652115
    0.9761654378940984
    -1.2335650116146335
    -1.236287619287889
    -1.2378447526076652
    -1.1702974495012204
    -0.9379591226742034
    -0.9639992432155337
    -1.012348130064366
    1.313273308682222
    1.2566906588532316
    1.2587673502640366
    0.8291984926977638
    0.8387982465808673
    0.8549061525624568
    -1.3605759051759285
    -1.3419134196382638
    -1.3353791355398954
    0.056144055547734384
    0.13126560164344653
    0.9712072922063298
    1.0338625179981733
    -1.160129083846719
    -1.1852869444116743
    -0.667912512635989
    -0.7244833484896024
    1.2684876837436494
    1.2164003799583183
    0.9613245165652857
    0.9892940390635381
    -1.2077623905022103
    -1.2337221888522556
    -1.2895000758150872
    -1.2679224918531902
    0.471540243844842
    0.37746902506410834
    -0.20643158747617804
    -0.30465289850114097
    -1.1030073571847734
    -1.0787376635838815
    -0.318463323355474
    -0.20201959737563313
    -0.7076038743444077
    -0.5855530526625187
    -1.5301585874203991
    -1.5879033728706968
    0.7587115001205142
    0.7475401664803529
    1.7286239184697065
    1.7508131324829062
    -1.1361795875023721
    -1.1122824835705658
    -0.6541535973563629
    -0.564565364889614
    0.9789202129677006
    0.8932835305421429
    0.029901395955718352
    -0.05429670522922872
    0.07495756253557975
    0.0810485817833624
    0.1532805916230319
    0.23874621217958023
    0.9750996118546672
    1.052889438993658
    -1.2118523374125578
    -1.2284010202472013
    -0.7154504728054227
    -0.7744406053557691
    -0.9512621725996151
    1.2639559968844292
    -0.9906176706928371
    -1.2520314108435981
    0.430352584369199
    -1.0312095911981871
    -1.038786266004397
    0.9450245692774348
    -0.8938484994918082
    0.6197471107014464
    -1.4912721169909149
    -1.5369539346920402
    -1.1309856759581705
    -0.5448023497598485
    -0.4766408162433906
    1.3466997962959741
    0.9900441622935787
    1.3864941450506125
    0.8849126227173932
    1.0044046914279923
    0.9646089943392077
    0.9388166462488514
    0.7084372563171986
    0.7065397649350714
    -1.3039298194356759
    -1.3248343920394214
    0.7316076081441663
    -1.2314628944742132
    -1.2152628523259619
    -1.1761779841578124
    -1.1900470775991052
    -1.267328582764953
    1.0600014521705086
    1.1129493783794866
    1.09728289131483
    1.059169594208649
    -1.2278295833947352
    -1.2403800060409773
    -1.2479378683755273
    -1.2496181495473293
    0.4146033994769048
    0.4744760488291777
    1.2148454296557312
    1.2361266369310009
    -0.9173249873763667
    -0.9554571611605958
    -1.2396000268405551
    -1.2468747390043886
    -0.7583812394034453
    0.38670973682597704
    -0.790355827967218
    1.141073060415129
    -0.8147394237002756
    -0.8786438489754428
    -0.09053532528871458
    -1.2416900731800469
    2.126624549701337
    2.0791468793301577
    1.069380978143055
    1.01100035683321
    1.1315418789543212
    1.1717938908420358
    -1.2572045195181147
    -1.2540382457043489
    -1.2273272326156683
    -1.2064620827341044
    -0.14032269205245146
    -0.011007194467740306
    0.484413977757443
    0.43964363393919503
    0.580448692087083
    -1.0422991901065295
    -1.043920594020611
    -1.062984883133864
    -1.226850179153441
    -1.2194842939187647
    -0.9098377520685261
    -0.8527538429690638
    1.2271971977377565
    1.171248008131961
    0.38511944090684136
    0.30354862799616217
    -0.4509473138872333
    -0.3895214157016531
    0.8741970902250586
    -0.5407942980972898
    0.13049865633977145
    1.2583317741284041
    1.5943690033980025
    -1.1080077506757917
    -1.1522508316364608
    -1.3321096178543583
    -1.12549480986985
    -1.2471441490080906
    -1.2821806760052632
    -0.4093258439516254
    -0.1387122112501142
    -0.1105981240565663
    2.1283647996394537
    2.0971949097354514
    1.688094534986188
    1.6471236683793486
    0.07689230164849757
    0.1610001737971491
    1.050002334554558
    1.1319318685545323
    -1.1295610646230558
    -1.1480498076750159
    -0.699917406614859
    -0.768581900871069
    -0.9467927659366749
    -0.9472494659739324
    0.358725222136146
    0.3872795364155513
    -0.5247954787687723
    -0.4671642744187008
    -1.344109149692268
    0.527725873474144
    -1.1000347298369668
    -1.0767760300202247
    -0.6668199767391841
    -0.5735754473060829
    1.0353723954164422
    0.9428453402651256
    0.03749167449036808
    -0.05837662189791374
    1.746671435223897
    1.6984887787133833
    0.7350499052195895
    0.7594444802449809
    -1.5007243245945838
    -1.4516102902209382
    -0.7925554746108852
    -0.8965275110276678
    -0.9931900354183656
    0.5277030160000453
    -1.0432498940924244
    0.8859668916069994
    0.8137268720204371
    0.8916942298220201
    0.8878573844928435
    -1.2184781798200968
    -0.32683055536451544
    -0.19372628297068176
    -0.3316831457505475
    0.8034358079586253
    0.42047077182397363
    0.4991961502413111
    1.2786563062237024
    1.3150816173915314
    -1.217197904445021
    -1.2243976235477667
    -0.9432852351711275
    -0.9891806675248546
    1.3643238077154605
    1.3583126772658443
    0.7444385484992202
    0.665714454209641
    -1.2626392050170072
    -1.2544704831078097
    -1.1072176268660783
    -1.0749921839447116
    -0.8932567092143723
    -1.0133944373618702
    1.3348442151797755
    0.857990434818852
    1.7145678560267978
    1.7087476753748485
    -1.2711278031508098
    -0.22751534405700438
    2.1131065367891773
    -0.13964720874836495
    1.672047047215629
    1.6296777654799455
    -1.1936466161185384
    -1.1803991689250635
    -0.9325695100596291
    -0.8845857649388839
    1.2917108774278732
    1.2460377917955046
    0.38185217044488134
    0.3054734070931543
    0.08680490918252788
    0.17158536732201113
    1.1075588668754812
    1.1878377830548716
    -1.089669892635438
    -1.0995038714216647
    -0.7087290270862747
    -0.777620747749325
    1.1293193106301675
    1.1799085509726066
    -1.1737479007879092
    1.1238165663600823
    1.0857094330671413
    -1.0605152486290035
    -1.238427361371629
    -1.245605121889707
    -1.04918211489129
    -1.2672655320920179
    -1.2711714634945936
    0.8838853205107126
    0.009198415358437021
    0.028119941568155175
    0.6475697931905312
    0.6589364426627378
    0.5999798900532722
    0.5775588267733024
    0.497792277569494
    -0.9269117073627231
    -0.02533527529886006
    0.9602767325208594
    1.0275801797659934
    0.15417509896790216
    0.21777813945818436
    0.2625925609617377
    -1.1994565237484212
    -1.2102589916899962
    -1.2280907749807837
    -0.039272040266568234
    -0.9681256593542183
    1.0965628808807228
    1.0047753549054403
    -1.0548682326052676
    -1.0356716783329047
    -0.6728354090167908
    -0.5838361417464096
    0.030794579043837787
    -0.06975833479066054
    0.7983581099765543
    0.8683432654258404
    1.396402988485151
    1.3689045482550497
    -1.1365266872354545
    -1.158008988917682
    -1.2603701512680012
    -1.2625996538820499
    -1.0494989734156632
    -1.135374567810662
    -0.6928745437177958
    -0.7448888448400648
    -0.7798950022157523
    -0.20223197605526738
    -0.23481609191113842
    -0.31884328070757306
    0.3303619218607954
    0.264867618008014
    1.3954707117325884
    1.3433837931855845
    1.0255759773671473
    1.0659881841927161
    -1.2786917008858238
    -1.2683295603525875
    -1.295456374009422
    -1.296988723663462
    0.1698465299244282
    1.604351941004198
    -0.9942400024799811
    0.8325849944220867
    -0.9596517644832488
    -1.364665081609621
    -0.9311535023804955
    -1.1358010266392102
    1.436837089689
    1.4396959433174163
    0.7721816150672873
    0.6886166159542771
    -1.2406423533420086
    -1.222964536969447
    -1.1407924312359201
    -1.107700651522382
    0.42367171708721485
    0.5068284919858453
    1.3479482253026427
    1.384471515418434
    -1.1734949276195141
    -1.1839511947174377
    -0.9677409346778164
    -1.015068041069329
    1.5279354242963754
    1.490051215582284
    0.8685190625159586
    0.905984388755276
    -1.3608179632583777
    -1.341432128554434
    -1.1229479350803249
    -1.1726492010778642
    -0.3108503879916879
    -0.26751462355027855
    -0.16576273969230426
    -1.184448665811023
    -1.1532715847915738
    -1.216307875495708
    -1.1807008105355001
    -1.1854287121161962
    1.3571234465488355
    1.3079202937087604
    -1.1350656066720028
    -1.1191676555789036
    -0.9554015584286591
    -0.9001929895074924
    0.39509310068998277
    0.32231384375449507
    1.0794363405548215
    1.00691849992774
    1.2370618671774078
    1.288521617727233
    -1.227110343437283
    -1.2097156772354378
    -1.260302606147912
    -1.257265001935533
    -1.2785626460461097
    -1.1400243944236506
    -1.3028385676666294
    -1.0265528302953035
    0.062468970640902156
    0.16640948172121722
    1.1759000177621386
    1.2541787765451216
    1.443292143104678
    -1.0406485080795573
    1.006213000137302
    0.32791036145413377
    -1.0305075585526968
    -1.0378582910798246
    -0.7244519515659107
    -0.7874052234104674